import pandas as pd
import numpy as np
from sklearn.model_selection import train_test_split
from sklearn.linear_model import LinearRegression
from sklearn import metrics
import matplotlib.pyplot as plt
import seaborn as sns
from zipfile import ZipFile

# Load the dataset (replace with your file path if necessary)
# Note: You need a CSV file named 'house_price_dataset.csv' for this to run
try:
    with ZipFile('/content/house PRICE prediction.zip', 'r') as zip_ref:
        # Read the 'train.csv' file into a pandas DataFrame
        df = pd.read_csv(zip_ref.open('train.csv'))
except FileNotFoundError:
    print("Error: house PRICE prediction.zip not found. Please provide the dataset file.")
    exit()

# Select the relevant features
# Adjust column names as per your dataset's actual column names
X = df[['GrLivArea', 'BedroomAbvGr', 'FullBath']]
y = df['SalePrice']

# Split the data into training and testing sets
X_train, X_test, y_train, y_test = train_test_split(X, y, test_size=0.2, random_state=42)

# Initialize and train the linear regression model
model = LinearRegression()
model.fit(X_train, y_train)

# Use the trained model to make predictions on the test set
predictions = model.predict(X_test)

# Evaluate the model (optional, but useful)
print('Evaluation Metrics:')
print('Mean Absolute Error (MAE):', metrics.mean_absolute_error(y_test, predictions))
print('Mean Squared Error (MSE):', metrics.mean_squared_error(y_test, predictions))
print('Root Mean Squared Error (RMSE):', np.sqrt(metrics.mean_squared_error(y_test, predictions)))
print('R-squared:', metrics.r2_score(y_test, predictions))
print("-" * 30)

# --- Graphical Representations ---

# 1. Scatter Plot of Actual vs Predicted Prices
plt.figure(figsize=(10, 6))
plt.scatter(y_test, predictions, alpha=0.5)
plt.xlabel('Actual Prices')
plt.ylabel('Predicted Prices')
plt.title('Actual vs Predicted House Prices (Scatter Plot)')
# Add a line for perfect prediction (y=x)
plt.plot([min(y_test), max(y_test)], [min(y_test), max(y_test)], color='red', linestyle='--')
plt.show()

# 2. Histogram of Residuals (Error Distribution)
# Residuals are the difference between actual and predicted values
residuals = y_test - predictions
plt.figure(figsize=(10, 6))
sns.histplot(residuals, kde=True, bins=30)
plt.xlabel('Residuals (Actual - Predicted)')
plt.ylabel('Frequency')
plt.title('Distribution of Residuals')
plt.show()

# 3. Correlation Heatmap (to see relationships between features)
plt.figure(figsize=(8, 6))
correlation_matrix = df[['GrLivArea', 'BedroomAbvGr', 'FullBath', 'SalePrice']].corr()
sns.heatmap(correlation_matrix, annot=True, cmap='coolwarm', fmt=".2f")
plt.title('Correlation Heatmap of House Features and Price')
plt.show()
